{"tossups": [{"question": ["anselm", "aquinas", "st", "()", "aristotle", "existence", "bellum", "work", "asks", "mover", "good", "points", "90th", "evil\u201d", "ontological", "ad", "text", "\u201cthe", "adherence", "scholastic", "thomas", "simply", "treatise", "god\u2019s", "saint", "\u201cwhat", "advancement", "avoidance", "question", "\u201cauthority", "law\u201d", "jus", "treatise", "unmoved", "refers", "law", "contingency", "argument", "included", "10", "\u201cthe", "essence", "philosopher\u201d", "sovereign\u201d", "argument", "work", "prove", "arguments", "claims"], "answer": "Summa Theologica [accept Summa Theologiae; prompt on \u201cSumma\u201d]", "category": "Philosophy"}, {"question": ["longer", "dwelling", "()", "kings\u201d", "flame", "love", "poetry", "above\u201d", "\u201cto", "house\u201d", "\u201cif", "points", "hope", "colonial", "sing", "surely", "america", "stated", "", "collection", "burning", "wars", "prologue", "\u201cverses", "female", "poem", "poet", "place\u201d", "husband\u201d", "sprung", "dear", "narrator", "\u201cblest", "10", "poem", "captains", "\u201cthe", "lies", "muse", "took\u201d", "treasure", "loving", "collection", "we\u201d", "tenth", "wrote", "consume"], "answer": "Anne Bradstreet [accept Anne Dudley]", "subcategory": "American Literature", "category": "Literature"}, {"question": ["st", "madrid", "works", "hamilton", "goyas", "produced", "picasso", "cross", "long", "room", "()", "bosch\u2019s", "paintings", "museums", "titled", "sickle", "10", "james", "daughter", "3rd", "museum", "version", "breda", "hammer", "museum", "children", "fortuny", "garden", "artists", "sitting", "include", "earthly", "richard", "painters", "painting", "delights", "masterpieces", "etching", "chest", "depicting", "son", "hieronymus", "place", "spanish", "velazquez\u2019s", "surrender", "1808", "artist", "japanese", "points", "divan", "located"], "answer": "The Prado [accept Museo Nacional del Prado]", "subcategory": "Visual Fine Arts", "category": "Fine Arts"}, {"question": ["namesake", "meniere\u2019s", "organ", "hammer", "organ", "called", "organ", "cholesteatoma", "affect", "visible", "structure", "natural", "()", "ampulla", "membrane", "basilar", "false", "tinnitus", "pinna", "stirrup", "cupula", "hearing", "10", "pair", "lies", "anvil", "facilitate", "body", "input", "\u201cdrum\u201d", "corti", "lie", "presbycusis", "semicircular", "organ\u2019s", "sensory", "organs", "bones", "receives", "smallest", "portion", "function", "canals", "points", "loss", "irreversible", "tympanic", "disease", "structure"], "answer": "ears [accept cochlea before \u201cthis organ\u201d]", "subcategory": "Biology", "category": "Science"}, {"question": ["dc", "rights", "()", "constitution", "amendment\u2019s", "freedmen", "decision", "amendment", "10", "case", "necessity", "amendment", "solely", "supreme", "ruled", "protections", "militia", "ruling", "1939\u2019s", "miller", "state\u2019s", "maintain", "outlines", "it\u2019s", "heller", "precedent", "extend", "court", "cruikshank", "wellregulated", "arms", "amendment", "pertaining", "incorporate", "group", "bear", "exercised", "collective", "points", "overturned", "interpretation", "failed"], "answer": "Second Amendment to the United States Constitution [or Amendment II]", "subcategory": "American History", "category": "History"}, {"question": ["civil", "picture", "character", "forced", "\u201cbakkie\u201d", "accused", "()", "wife", "finds", "stealing", "approaching", "chicken", "johannesburg", "runs", "10", "author", "african", "friend", "shocked", "life", "sees", "gordimer", "nadine", "points", "south", "gun", "apartheid", "book", "eggs", "coffeetable", "flee", "helicopter", "kills", "woman", "scene", "family", "scolds", "war", "overturn", "title", "smales", "lydia"], "answer": "July\u2019s People", "subcategory": "World Literature", "category": "Literature"}, {"question": ["decongestants", "prefix", "ch4", "recreationally", "rapid", "active", "trade", "loss", "ends", "called", "addiction", "()", "simplest", "enantiomer", "alcohol", "10", "compound", "treat", "opioid", "fourletter", "greenhouse", "chemical", "gas", "points", "nasal", "wood", "carbon", "tooth", "precursor", "\u201cadone\u201d", "ingredient", "combustible", "narcotic", "prefix", "highly", "otc", "desoxyn", "alcohol", "alkane", "tetrahydride", "ldeprenyl"], "answer": "meth [accept levo before \u201cDesoxyn\u201d]", "subcategory": "Chemistry", "category": "Science"}, {"question": ["minister", "impeachment", "announced", "prime", "president", "()", "landmark", "current", "vietnam", "complex", "10", "2017", "brother", "position", "purchase", "building", "charged", "kimoon", "portugal", "malcolm", "administrative", "geunhye", "south", "72", "wealth", "harris", "2017", "united", "ban", "held", "antonio", "park", "fund", "guterres", "sovereign", "korea", "january", "office", "chief", "nations", "younger", "holder", "points", "bribing"], "answer": "Secretary-General of the United Nations [prompt on just \u201cSecretary-General\u201d or \u201cSecGen\u201d before United Nations is mentioned]", "subcategory": "World History", "category": "History"}, {"question": ["continent", "shares", "fresh", "region", "active", "lake", "location", "point", "vinson", "massif", "scientific", "mcmurdo", "land", "()", "vostok", "site", "island", "10", "world\u2019s", "untersee", "sound", "landmass\u2019s", "water", "nasa", "investigate", "lies", "70", "pole", "base", "points", "south", "populous", "ice", "queen", "maud", "coast", "ross", "form", "highest", "alkaline", "largest", "houses", "waters", "mission", "landmass", "erebus", "landmass", "highly", "volcano", "located", "mount"], "answer": "Antarctica", "category": "Geography"}, {"question": ["history", "civil", "cristero", "trade", "leading", "anticatholic", "cient\u00edfico", "country\u2019s", "oil", "nation", "limantour", "()", "creating", "yves", "industry", "1938", "pemex", "10", "agreement", "nationalized", "calles", "country", "lerdo", "sparked", "signed", "church", "country", "march", "stateowned", "conservatives", "united", "passed", "north", "free", "influential", "procatholic", "law", "law", "war", "general", "period", "american", "enterprise", "canada", "war", "passage", "law", "jos\u00e9", "finance", "porfiriato", "secretary", "points", "angered", "zuloaga\u2019s"], "answer": "M\u00e9xico [accept United Mexican States or Estados Unidos Mexicanos]", "subcategory": "World History", "category": "History"}, {"question": ["austrian", "alexander", "napoleon", "forced", "troops", "francs", "town", "()", "heights", "occurred", "40", "kutuzov", "battle", "pressburg", "war", "habsburgs", "10", "ulm", "pay", "culminated", "named", "commander", "franz", "victory", "general", "emperors", "von", "coalition", "fought", "stripped", "allied", "russian", "treaty", "victors", "weyrother", "decisive", "tsar", "winning", "ended", "campaign", "chief", "capture", "sought", "battle", "title", "points", "battle", "signing", "pratzen"], "answer": "Battle of Austerlitz [accept Battle of Three Emperors before read]", "subcategory": "European History", "category": "History"}, {"question": ["epic", "()", "titular", "clarissa", "pope", "pair", "petticoat", "work", "note", "chloe", "losing", "special", "sir", "points", "ombre", "action", "revive", "object", "guard", "frown", "sylphs", "mock", "protection", "hands", "title", "unable", "game", "sees", "constellation", "poem", "meant", "canto", "battle", "alexander", "plume", "completes", "belinda", "protagonist", "hair", "protect", "10", "poem", "piece", "kill", "court", "smile", "ariel", "work", "baron", "scissors", "transformed"], "answer": "The Rape of the Lock", "subcategory": "British Literature", "category": "Literature"}, {"question": ["()", "attract", "pose", "headed", "rests", "work", "man", "attention", "shipwreck", "french", "painting", "ship", "covers", "points", "painting", "waves", "man", "corpse", "upper", "barrel", "th\u00e9odore", "woman", "arm", "senegal", "diaphanous", "distance", "center", "pyramids", "figures", "veil", "romanticist", "white", "cloth", "pyramids", "g\u00e9ricault", "work", "depicting", "10", "originally", "piece", "lies", "work", "survivors", "son\u2019s", "form", "critics", "claim", "bearded", "red", "white", "\u201cthinker\u201d"], "answer": "The Raft of the Medusa [accept Le Radeau de la M\u00e9duse]", "subcategory": "Visual Fine Arts", "category": "Fine Arts"}, {"question": ["revolution", "written", "()", "lawyer", "pasternak", "komarovsky", "gordon", "abandoning", "yuri", "protagonist", "scene", "family", "points", "axe", "candle", "christmas", "phrase", "brotherhood", "attempts", "pushed", "russian", "insane", "title", "forest", "character", "party", "father", "love", "misha", "mutters", "sees", "\u201ca", "shoot", "liberius", "protagonist\u2019s", "witnessed", "physician", "pamphil", "dying", "10", "yara", "burned\u201d", "train", "light", "work", "life", "murders", "boris", "window"], "answer": "Doctor Zhivago", "subcategory": "European Literature", "category": "Literature"}, {"question": ["poleta", "formation", "rapid", "names", "paleozoic", "\u201cexplosion\u201d", "()", "occurred", "era", "10", "period", "california", "fossils", "mass", "diversification", "fossil", "formation", "sweden", "discontiguous", "east", "period\u2019s", "extinction", "unusually", "dated", "biota", "period", "period", "relief", "allowing", "preserved", "zones", "divide", "zones", "peneplains", "nevada", "trilobites", "geological", "coast", "points", "ediacaran", "located"], "answer": "Cambrian Period", "subcategory": "Other Science", "category": "Science"}, {"question": ["caesar", "dollars", "suspension", "album", "()", "titular", "titled", "performed", "label", "stream", "\u201c14400", "daniel", "donated", "singer", "public", "win", "points", "acid", "late", "chicago", "2017", "school", "coloring", "debut", "song", "grammy", "10day", "singers", "free", "music", "rap", "untitled", "colbert", "chronicling", "selling", "created", "book", "\u201cfirst", "track", "appears", "rapper", "artist", "artists\u2019", "problems\u201d", "minutes\u201d", "schools", "soundcloud", "appearance", "stephen", "10", "mixtapes"], "answer": "Chance the Rapper [accept Lil\u2019 Chano from the 79th or Chancelor Bennett; prompt on just \u201cBennett\u201d]", "category": "Trash"}, {"question": ["funebre\u201d", "volga\u201d", "finale", "moderato", "nicknamed", "\u201cdown", "sixth", "minor", "()", "\u201cpolish\u201d", "nutcracker", "quotes", "symphony", "symphony", "allegro", "plays", "mother", "man\u2019s", "10", "assai", "solo", "\u201cthe", "major", "limping", "song", "symphonies", "crane\u201d", "manfred", "\u201ctempo", "inspired", "composer\u2019s", "marcia", "parallel", "returning", "horn", "russian", "major", "briliante", "54", "di", "movement", "waltz", "tonic", "\u201cpathetique\u201d", "composer", "lord", "points", "folk", "byron", "minor"], "answer": "Pyotr Ilyich Tchaikovsky [accept Peter Ilyich Tchaikovsky]", "subcategory": "Auditory Fine Arts", "category": "Fine Arts"}, {"question": ["naam", "dagger", "founded", "oneday", "()", "india", "language", "\u201cremembrance", "name\u201d", "divine", "festival", "celebrated", "bear", "points", "religion", "nanak", "scripture", "human", "region", "bhasa", "sach", "religion", "named", "members", "granth", "originated", "simran", "long", "main", "scripture", "belief", "adi", "gurus", "k\u2019s", "sant", "khand", "group", "punjab", "hola", "undergoing", "hair", "adherents", "10", "singh", "gobind", "carry", "adherents", "guru", "ceremonial", "successor", "religion\u2019s", "reach", "mohalla", "holy"], "answer": "Sikhism", "category": "Religion"}, {"question": ["argued", "speech", "islambouli", "peninsula", "anwar", "control", "()", "khalid", "carter", "sadat", "signed", "mediated", "10", "suez", "israel\u2019s", "agreement", "nations", "resolutions", "resolution", "knesset", "reject", "sinai", "3465", "guaranteed", "canal", "presidential", "united", "respect", "338", "parts", "free", "selfdetermination", "el", "egypt\u2019s", "retreat", "assassinated", "invoked", "leader", "242", "egyptian", "restored", "menachem", "implementation", "signatory", "palestine\u2019s", "passage", "accords", "title", "points", "jimmy"], "answer": "Camp David Accords", "subcategory": "World History", "category": "History"}, {"question": ["denoted", "atomic", "baryons", "()", "won", "physics", "antiparticle", "deals", "chamberlain", "segre", "composed", "1959", "quarks", "points", "spin", "particle\u2019s", "discovered", "\u201cspin", "dealt", "years", "named", "36th", "ernest", "charged", "nobel", "chain", "small", "atom", "called", "quark", "halflife", "hypothetical", "number", "puzzle\u201d", "\u201cradius", "particle", "decay", "rutherford", "size", "number", "discovering", "positron", "prize", "nuclei", "particles", "stars", "positively", "10", "pion", "occurs", "reaction", "unexplained", "crisis\u201d"], "answer": "protons", "subcategory": "Physics", "category": "Science"}, {"question": ["tragic", "austrian", "notturno", "minor", "prolific", "works", "()", "ababa", "composed", "symphony", "romantic", "allegro", "man\u2019s", "slow", "included", "follow", "trout", "lieder", "he\u2019s", "double", "vocal", "work", "work", "marked", "composer\u2019s", "bass", "entire", "\u201cunfinished\u201d", "majority", "movement", "movements", "referred", "vivace", "mahler", "4", "quintet", "composer", "points", "pattern", "winterreise"], "answer": "Franz Schubert BONUSES", "subcategory": "Auditory Fine Arts", "category": "Fine Arts"}], "bonuses": [{"leadin": ["scandal", "longestserving", "planned", "forming", "bidding", "making", "referendum", "constitution", "great", "rival", "minister", "questions", "man", "years", "prime", "current", "quebec", "bribes", "opposed", "pm", "son", "railroad", "150", "george", "northern", "sovereignty", "conservative", "established", "members", "passed", "canada", "country", "points", "coalition", "brown", "served", "10", "canada", "neighbor", "contractors", "implicated", "macdonald", "party", "resigned", "surname", "transcontinental", "1980", "1867", "19", "answer"], "answers": ["Sir John Alexander Macdonald", "Pacific Scandal", "Pierre Trudeau [accept Justin Trudeau; do not accept nicknames like PET that do not include the surname]"], "parts": ["Name this first Prime Minister of Canada. After forming the Great Coalition with his rival George Brown, he passed the Constitution Act of 1867, which established Canada as a country.", "Macdonald resigned after this scandal that implicated 150 members of the Conservative Party who took bribes from bidding contractors for a planned transcontinental railroad.", "A Prime Minister with this surname was the third longest-serving. He opposed Quebec sovereignty in a 1980 referendum and his son is the current PM."], "subcategory": "World History", "category": "History"}, {"leadin": ["hypothesized", "protons", "left", "electromagnetic", "cmb", "size", "alan", "linde", "problems", "guth", "offers", "namesake", "electrons", "waves", "universe", "big", "discovered", "consists", "occurred", "region", "andrei", "thought", "region", "horizon", "bang", "cooled", "neutral", "gravitational", "universe", "atoms", "event", "expansion", "magnetic", "formed", "bang", "bicep2", "points", "proposed", "evidence", "10", "exponential", "theory", "led", "cosmic", "flatness", "solution", "monopole", "fills", "form", "analyzing", "inflation", "radiation", "increase", "hydrogen", "epoch"], "answers": ["cosmic inflation theory", "cosmic microwave background [accept CMBR; accept the answer with \u201cradiation\u201d at the end, but inform the player that the region is technically just the CMB]", "recombination"], "parts": ["Name this theory of exponential expansion, proposed by Alan Guth and Andrei Linde, that offers a solution to the magnetic monopole, flatness, and horizon problems.", "BICEP2 was thought to have discovered evidence for cosmic inflation by analyzing gravitational waves in this region. This region that fills all of the universe consists of a namesake electromagnetic radiation left over from the Big Bang.", "The CMB formed after this epoch, in which electrons and protons cooled enough to form neutral hydrogen atoms."], "subcategory": "Physics", "category": "Science"}, {"leadin": ["charter", "senator", "president", "lost", "national", "electoral", "lent", "man", "presidency", "john", "mint", "crawford", "bargain\u201d", "clay", "worked", "jackson", "popular", "andrew", "winning", "james", "bank", "adams", "establish", "minister", "vote", "president", "georgia", "election", "monroe", "position", "support", "quincy", "henry", "representatives", "1824", "points", "college", "alexander", "hamilton", "vote", "served", "10", "elected", "france", "madison", "\u201ccorrupt", "house", "holder"], "answers": ["Election of 1824", "William Harris Crawford", "Secretary of the Treasury"], "parts": ["Name this election in which John Quincy Adams was elected president by the House of Representatives after Henry Clay lent Adams his support.", "This man came in third in the electoral college vote in 1824. This former Georgia senator was the U.S. minister to France under James Madison.", "Crawford served in this position under President James Monroe. Alexander Hamilton was the first holder of this position where he worked to charter a national bank and establish the U.S. mint."], "subcategory": "American History", "category": "History"}, {"leadin": ["event", "brought", "death", "magic", "eating", "mountain", "death", "mann", "sanatorium", "boy", "author", "10", "typhoid", "como", "gustav", "des", "von", "work", "german", "venice", "returned", "bags", "hans", "castorp\u2019s", "decline", "beach", "hotel", "visit", "hanno", "protagonist", "overripe", "strawberries", "tadzio", "polish", "aschenbach", "wrote", "remains", "title", "watches", "points", "family", "bains"], "answers": ["Death in Venice", "Thomas Mann", "Buddenbrooks"], "parts": ["After eating overripe strawberries, the title event of this novel happens to Gustav von Aschenbach on the beach, while he watches the Polish boy Tadzio.", "Death in Venice is a work by this author, who wrote about Hans Castorp\u2019s visit to a sanatorium in The Magic Mountain.", "Mann also wrote this novel about the decline of the title German family, which is brought to an end after the death of Hanno from Typhoid."], "subcategory": "European Literature", "category": "Literature"}, {"leadin": ["alexander", "strains", "shock", "resistance", "endocarditis", "isolated", "grampositive", "antibiotics", "discovered", "acronym", "antibiotic", "obsolete", "betalactam", "widespread", "10", "aureus", "treat", "compound", "extensive", "fourletter", "drug", "staph", "hospitals", "rendering", "infection", "fleming", "common", "hospitalacquired", "answer", "resistant", "syndrome", "bacterium", "points", "toxic"], "answers": ["penicillin", "Staphylococcus aureus [accept, but DO NOT REVEAL Methicillin-resistant Staphylococcus aureus]", "methicillin"], "parts": ["This compound was the first antibiotic isolated, discovered by Alexander Fleming. Resistance to this beta-lactam antibiotic is now widespread due to its extensive use.", "This gram-positive bacterium is the most common cause of hospital-acquired infection. It can cause endocarditis and toxic shock syndrome.", "Though this beta-lactam antibiotic was once used to treat Staph aureus, strains of Staph resistant to it, which are known by a four-letter acronym, are now widespread in hospitals, rendering this drug obsolete."], "subcategory": "Biology", "category": "Science"}, {"leadin": ["contemporary", "slaves", "peace", "wrapped", "smithsonian", "architect", "works", "dc", "september", "bronze", "building\u2019s", "nmaahc", "newest", "10", "museum", "building", "opened", "londonbased", "resemble", "designer", "nobel", "museum", "tilting", "latticelike", "aluminum", "panels", "earlier", "24", "2016", "include", "limestonebased", "monument", "capitol", "area", "meant", "washington", "ghanaian", "ironwork", "center", "nonmarblebased", "outward", "denver", "painted", "designed", "layers", "pattern", "art", "points", "shade"], "answers": ["National Museum of African American History and Culture [accept National African American History Museum; NMAAHC]", "David Adjaye", "The National Mall"], "parts": ["Wrapped in three layers of aluminum painted a shade of bronze, this building\u2019s outward tilting panels have a lattice-like pattern meant to resemble the ironwork of slaves.", "The NMAAHC was designed by this architect, a London-based Ghanaian designer whose earlier works include the Nobel Peace Center and the Museum of Contemporary Art Denver.", "The NMAAHC is the only non-marble-based or limestone-based building in this area of Washington D.C. This area is also the home of the Washington Monument and the Capitol."], "subcategory": "Other Fine Arts", "category": "Fine Arts"}, {"leadin": ["simple", "matters", "intuition", "passions", "understanding", "understanding", "\u201cdogmatic", "human", "missing", "divided", "complex", "10", "thought", "treatise", "nature", "categorizes", "adapted", "treatise", "philosopher", "isought", "earlier", "kant", "understanding", "fact", "blue", "slumber\u201d", "scottish", "enquiry", "experiment", "ideas", "hume", "impressions", "concept", "woke", "types", "immanuel", "morals", "problem", "empiricist", "contradict", "points", "shade"], "answers": ["David Hume", "A Treatise of Human Nature", "mental perceptions"], "parts": ["Name this Scottish empiricist who seemed to contradict himself with his missing shade of blue thought experiment in An Enquiry Concerning Human Understanding.", "Hume adapted An Enquiry Concerning Human Understanding from this earlier treatise which contains the is-ought problem and is divided into Of the Understanding, Of the Passions, and Of the Morals.", "In A Treatise of Human Nature, Hume categorizes these things into impressions and ideas and between the simple and complex types of this concept. Unlike intuition, they are immediate matters of fact."], "subcategory": "Philosophy European", "category": "Philosophy"}, {"leadin": ["st", "day", "king", "guise", "maximilian", "peasants", "tax", "paulette", "killed", "french", "failed", "lowered", "duke", "1598", "named", "massacre", "wars", "1572", "restoring", "bourbon", "admiral", "edict", "defenestrated", "thousands", "protestants", "nantes", "ravaillac", "sully", "catholic", "began", "people", "francois", "religion", "attempt", "group", "fanatic", "points", "bartholomews", "king", "10", "assassination", "protestant", "huguenot", "bethune", "assassinated", "massacre", "days", "mercenaries", "taxes", "ended"], "answers": ["Henry IV [accept Henry of Navarre; prompt on partial answer]", "Huguenots", "Admiral Gaspard de Coligny"], "parts": ["Name this Bourbon king who ended the Wars of Religion with the Edict of Nantes in 1598. As a former Protestant, he was assassinated by a Catholic fanatic named Francois Ravaillac.", "French Protestants were given this name. Thousands of these people were killed in the St. Bartholomew's Day Massacre in 1572.", "The massacre began two days after a failed assassination attempt on this Huguenot admiral, who was then killed and defenestrated by a group of mercenaries for the Duke of Guise."], "subcategory": "European History", "category": "History"}, {"leadin": ["knee", "long", "appearing", "ladder", "season", "won", "2010", "browns", "super", "edition", "release", "fitzgerald", "destined", "safety", "hair", "history", "2017", "walking", "mirror", "steelers", "fame", "flowing", "falcons", "injury", "madden", "cleveland", "patriots", "substandard", "athlete", "breaking", "cover", "bowl", "heralded", "game", "video", "larry", "points", "curse", "featured", "fans", "10", "quarterback", "\u201818", "suffered", "madden\u2019s", "mocked", "fullback", "2012", "nfl", "disappointing", "released", "players", "samoan"], "answers": ["Thomas Edward Patrick \u201cTom\u201d Brady, Jr.", "Troy Aumua Polamalu", "Peyton Derek Hillis"], "parts": ["After being featured on the cover of Madden \u201818, this Patriots quarterback mocked the Curse by breaking a mirror and walking under a ladder in a video he released. This quarterback won his fifth Super Bowl against the Falcons in 2017.", "This former Steelers safety suffered a knee injury after appearing on the cover alongside Larry Fitzgerald in 2010. This Samoan was known for his long, flowing hair.", "Perhaps the least heralded cover athlete in Madden\u2019s history was this Cleveland Browns fullback, who suffered through a disappointing season following his brief fame due to the 2012 edition."], "category": "Trash"}, {"leadin": ["pigment", "cow", "namesake", "procuress", "suicide", "temeraire", "names", "picasso", "love", "sundried", "paintings", "cochineals", "crushed", "10", "colors", "fighting", "country", "urine", "fluorescent", "friend\u2019s", "color", "purportedly", "period", "influenced", "pigment", "vermeer", "letter", "alum", "turner", "treated", "answer", "red", "pigments", "yellow", "jmw", "points", "primary"], "answers": ["carmine", "blue", "Indian yellow [accept euxanthine prompt on \u201cyellow\u201d]"], "parts": ["Vermeer used this red pigment in The Love Letter and The Procuress. It is made from cochineals that are crushed, sun-dried, and treated with alum.", "This color names a period of Picasso paintings influenced by his friend\u2019s suicide. It is one the primary colors along with red and yellow.", "This fluorescent pigment, purportedly made from cow urine in its namesake country, was used by J.M.W. Turner in The Fighting Temeraire."], "subcategory": "Visual Fine Arts", "category": "Fine Arts"}, {"leadin": ["guilty", "pakistan", "controversies", "petrobras", "prisoner", "returning", "women", "2016", "minister", "politics", "time", "prime", "massacre", "budgetary", "corruption", "aung", "rohingya", "kyi", "impeached", "suu", "president", "criticism", "breaking", "selfexile", "country", "surrounding", "scandal", "political", "faced", "decades", "points", "san", "involvement", "laws", "junta", "served", "pakistan", "10", "2007", "brazil", "military", "assassinated", "rough", "woman", "answer", "accusations"], "answers": ["Dilma Rousseff", "Myanmar [accept Burma]", "Benazir Bhutto"], "parts": ["This former President of Brazil was impeached in 2016 after controversies surrounding her involvement in the Petrobras scandal, as well as being found guilty of breaking budgetary laws.", "Aung San Suu Kyi has recently faced criticism over the massacre of the Rohingya in this country, where she was a political prisoner for nearly two decades under its military junta.", "This woman served as Prime Minister of Pakistan twice, and later went into self-exile due to corruption accusations. She was assassinated in 2007 after returning to Pakistan."], "category": "Current Events"}, {"leadin": ["st", "kingdom", "mary\u2019s", "questions", "lake", "lake", "chicago", "mackinac", "lakes", "river", "island", "rock", "lakes", "10", "michigan", "study", "ecological", "beaver", "island", "predatorprey", "lies", "superior", "subject", "wolves", "strait", "mormon", "separated", "huron", "volume", "ages", "largest", "lake\u2019s", "answer", "light", "moose", "great", "shores", "drains", "points"], "answers": ["Lake Michigan", "Lake Superior", "Isle Royale [prompt on just \u201cRoyale\u201d]"], "parts": ["Chicago lies on the shores of this lake, which is separated from Lake Huron by the Mackinac Strait. This lake\u2019s Beaver Island was once home to a Mormon Kingdom.", "Lake Michigan in second in volume to this largest of the Great Lakes. It drains into St. Mary\u2019s River.", "This largest island in Lake Superior is home to the Rock of Ages Light and was also the subject of a predator-prey ecological study of its moose and wolves."], "category": "Geography"}, {"leadin": ["quantity", "vapor", "pressure", "unit", "properties", "mixture\u2019s", "antoine", "condensed", "components", "elevation", "pure", "partial", "10", "number", "formula", "calculate", "named", "calculates", "sum", "ions", "point", "equation", "gas", "symbolized", "pressures", "constant", "substance", "law", "denoting", "depression", "exerted", "french", "equal", "solute", "boiling", "mixture", "chemist", "equilibrium", "colligative", "points", "estimates", "property"], "answers": ["vapor pressure", "Raoult\u2019s law", "Van\u2019t Hoff factor"], "parts": ["Name this quantity denoting the pressure exerted by a gas in equilibrium with its condensed state. The depression of this quantity is a colligative property.", "This law, named for a French chemist, calculates the vapor pressure of a mixture as the sum of the partial vapor pressures of the mixture\u2019s components.", "This constant, symbolized i, is equal to the number of ions in a formula unit of a solute. It is used to calculate other colligative properties, like elevation of boiling point."], "subcategory": "Chemistry", "category": "Science"}, {"leadin": ["reported", "character", "unexpected", "captain", "written", "chronicles", "vanity\u201d", "death", "science", "wife", "\u201cdover", "assigned", "author", "10", "guy", "\u201cthe", "poem", "montag", "reciting", "beach\u201d", "presence", "\u201cvanity", "vanities", "book", "fahrenheit", "protagonist", "fiction", "martian", "beatty", "american", "told", "kills", "451", "memorize", "biblical", "suspects", "fireman", "clarisse", "mildred", "stories", "points", "mcclellan", "hound\u201d"], "answers": ["Guy Montag [accept either underlined part]", "Ray Bradbury", "Ecclesiastes"], "parts": ["Name this fireman, who is reported by his wife Mildred for reciting the poem \u201cDover Beach\u201d and later kills Captain Beatty.", "Guy Montag is the protagonist of Fahrenheit 451, which was written by this American author, who is also known for his science fiction stories such as The Martian Chronicles.", "At the end of Fahrenheit 451, Guy Montag is assigned to memorize this biblical book, which contains the line \u201cvanity of vanities; all is vanity.\u201d"], "subcategory": "American Literature", "category": "Literature"}, {"leadin": ["king", "uruk", "character", "monster", "attack", "ishtar", "rejects", "cedar", "heaven", "forest", "prostitute", "bull", "goddess", "epic", "10", "temple", "god", "man\u201d", "tames", "creates", "enkidu", "man", "\u201cwild", "humbaba", "gilgamesh", "sends", "protagonist", "aruru", "sumerian", "wild", "kills", "enkidu", "seduces", "uncivilized", "friend", "points"], "answers": ["Gilgamesh", "Enkidu", "Shamhat"], "parts": ["Name this king of Uruk, the protagonist of a Sumerian epic.", "Gilgamesh kills the monster Humbaba in the Cedar Forest, along with the help of his best friend, this \u201cwild man.\u201d", "After the god Aruru creates Enkidu as an uncivilized wild man, Gilgamesh sends this temple prostitute, who seduces and tames Enkidu."], "category": "Mythology"}, {"leadin": ["allegedly", "piano", "dance", "sonatas", "set", "asleep", "vivace", "remains", "budapest", "dances", "dances", "mephisto", "<em>transcendental", "named", "composer\u2019s", "brahms", "book", "performance", "hungarian", "fell", "parlow", "liszt", "solo", "country", "inspired", "johannes", "martin", "compositions", "lively", "themes", "marked", "unfinished", "points", "gminor", "\u201cmazeppa\u201d", "allegro", "orchestrated", "10", "albert", "21", "etudes<em>", "\u201cappassionata\u201d", "schmeling", "19", "waltzes", "rhapsodies", "famous", "wrote", "composer", "capital", "country"], "answers": ["Franz Liszt", "Hungary", "Hungarian Dance No. 5"], "parts": ["Name this composer of four Mephisto Waltzes, the last of which remains unfinished. Johannes Brahms allegedly fell asleep during a performance of one of this composer\u2019s piano sonatas.", "Liszt is a composer from this country and wrote 19 rhapsodies named after it. Brahms wrote a set of 21 dances inspired by themes from this country, whose capital is Budapest.", "Of the 21 Hungarian Dances, this lively last dance of the first book in G-minor is the most famous. Marked allegro vivace, it has been orchestrated by Martin Schmeling and Albert Parlow."], "subcategory": "Auditory Fine Arts", "category": "Fine Arts"}, {"leadin": ["quantity", "weighing", "surface", "rest", "equals", "degrees", "ready", "weight", "object", "inclination", "10", "ramp", "flat", "lying", "pencil", "newtons", "force", "contacts", "exert", "times", "normal", "perpendicular", "exerted", "object", "60", "paper", "points", "object", "surface"], "answers": ["normal force", "coefficient of static friction [or mu]", "5 newtons"], "parts": ["Name this force that is perpendicular to the surface that an object contacts. On a flat surface, this force equals the weight of the object.", "To move an object lying on a flat surface from rest, one must exert more force than the normal force times this quantity.", "Pencil and paper ready. For an object weighing 10 newtons on a ramp with an inclination of 60 degrees, what is the normal force exerted by the object?"], "subcategory": "Physics", "category": "Science"}, {"leadin": ["discovery", "path", "chan", "sutra", "skandhas", "text", "espouses", "emptiness", "zen", "10", "eightfold", "relays", "named", "seon", "method", "sariputra", "reaching", "east", "texts", "advocating", "sects", "bodhisattva", "include", "truths", "prominent", "major", "branch", "noble", "texts", "wisdom", "heart", "perfection", "avalokiteshvara", "reach", "nirvana", "buddhism", "holds", "asia", "heart", "religion", "points", "famous"], "answers": ["sutras [accept Heart Sutra]", "Buddhism", "Mahayana"], "parts": ["Name these texts. In one named Heart, Avalokiteshvara relays to Sariputra his discovery of the emptiness of the five Skandhas.", "The Heart Sutra is a famous text from this major religion which espouses the Four Noble Truths, advocating the Eightfold Path as a method to reach nirvana.", "This branch of Buddhism holds that becoming a bodhisattva is better than reaching nirvana. It is most prominent in East Asia, where its sects include Chan, Seon, and Zen."], "category": "Religion"}, {"leadin": ["speaker", "heard", "written", "\u201cdarkling", "long", "\u201cdover", "english", "compares", "love", "10", "aegean", "poem", "\u201cthe", "describes", "\u201chath", "light\u201d", "beach\u201d", "night\u201d", "calm", "sophocles", "note", "life", "beach\u201d", "poet", "sadness\u201d", "groups", "sea", "\u201ceternal", "joy", "\u201cclash", "tonight\u201d", "plain\u201d", "claims", "points"], "answers": ["\u201cDover Beach\u201d", "Matthew Arnold", "ignorant armies"], "parts": ["Name this poem that describes an \u201ceternal note of Sadness\u201d that Sophocles heard long ago on the Aegean, and begins \u201cThe sea is calm tonight.\u201d", "\u201cDover Beach\u201d was written by this English poet.", "In the last line of \u201cDover Beach,\u201d the speaker compares life to a \u201cdarkling plain\u201d in which these groups \u201cclash by night.\u201d"], "subcategory": "British Literature", "category": "Literature"}, {"leadin": ["hw", "intent", "trump\u2019s", "meet", "manila", "subjects", "north", "resurrect", "questions", "rights", "tweeted", "announced", "prime", "human", "action", "deal", "version", "lap", "united", "free", "visiting", "deal\u201d", "asean", "pact", "countries", "asia", "dmz", "office", "minister\u2019s", "seoul", "george", "trade", "\u201cmany", "day", "group", "trump", "trip", "bush", "points", "lawyer", "korea", "10", "summit", "discussed", "economic", "moment", "2017", "withdrew", "embarrassing", "didn\u2019t", "confused", "leader", "vomit", "including", "answer", "asiapacific", "cooperation"], "answers": ["Trans Pacific Partnership", "handshake [accept shaking hands or obvious equivalents]", "Moon Jae-in"], "parts": ["Name this free trade pact that the United States withdrew from on his first day in office.", "While he didn\u2019t vomit in a Prime Minister\u2019s lap like George H.W. Bush, Trump had an embarrassing moment when he was confused at how to do a group version of this action at the ASEAN summit in Manila.", "Instead of visiting the DMZ, Trump went to Seoul to meet with this world leader and former human rights lawyer, after which he tweeted, \u201cMany subjects discussed including North Korea and new trade deal!\u201d"], "subcategory": "American History", "category": "History"}, {"leadin": ["advance", "red", "seas", "groundwork", "allies", "stumme", "waterway", "mediterranean", "halted", "vehicle", "korp\u2019s", "korp", "modern", "10", "attacks", "african", "led", "1942", "general", "laid", "book", "alamein", "german", "el", "north", "day", "wwii", "afrika", "defended", "connecting", "egypt", "egyptian", "ambushed", "georg", "died", "infantry", "battle", "success", "battle", "combat", "battle", "points", "wehrmacht", "result"], "answers": ["Second Battle of El Alamein [do not prompt on or accept \u201cFirst Battle of El Alamein\u201d]", "Erwin Rommel", "Suez Canal"], "parts": ["Name this North African battle that halted the German Afrika Korp\u2019s advance into Egypt.", "This general led the Afrika Korp to success until 1942. His book, Infantry Attacks, laid the groundwork for modern combat during WWII.", "As a result of the Second Battle of El Alamein, the Allies defended this Egyptian waterway connecting the Red and Mediterranean Seas."], "subcategory": "European History", "category": "History"}]}